1
pbc=[T, T, T] virial=[[0.00002577, -0.00008578, -0.00002165], [-0.00008578, 0.00006918, 0.00003604], [-0.00002165, 0.00003604, 0.00008838]] energy=-63.04239388 Lattice="-0.02613345 2.14501680 2.12691737 1.98125358 -0.00351374 2.08580263 1.93852274 2.00790215 0.06460052" Properties=species:S:1:pos:R:3:force:R:3:velocities:R:3:Z:I:1
Al         0.00000000       0.00000000       0.00000000         0.00000000      -0.00000000       0.00000000         0.00000000       0.00000000       0.00000000         13
1
pbc=[T, T, T] virial=[[-0.00000474, 0.00005073, -0.00005203], [0.00005073, -0.00003619, 0.00005390], [-0.00005203, 0.00005390, -0.00001209]] energy=-63.05539728 Lattice="-0.00839037 1.96816684 2.07785195 2.02390040 -0.00515996 2.00558385 2.14731345 1.95022425 0.07306673" Properties=species:S:1:pos:R:3:force:R:3:velocities:R:3:Z:I:1
Al         0.00000000       0.00000000       0.00000000        -0.00000000      -0.00000000       0.00000000         0.00000000       0.00000000       0.00000000         13
1
pbc=[T, T, T] virial=[[0.00000744, -0.00003292, 0.00003689], [-0.00003292, -0.00001208, 0.00002326], [0.00003689, 0.00002326, -0.00005691]] energy=-63.06142890 Lattice="0.00721823 2.00922305 2.02270223 2.07109147 -0.01639755 1.99526276 2.04197148 1.96826213 0.02907354" Properties=species:S:1:pos:R:3:force:R:3:velocities:R:3:Z:I:1
Al         0.00000000       0.00000000       0.00000000        -0.00000000       0.00000000       0.00000000         0.00000000       0.00000000       0.00000000         13
1
pbc=[T, T, T] virial=[[0.00006917, 0.00002365, -0.00000400], [0.00002365, 0.00006962, -0.00001413], [-0.00000400, -0.00001413, 0.00005349]] energy=-63.06994774 Lattice="-0.02002768 2.02105623 2.04780388 2.02056006 -0.02669753 2.04562581 2.03204597 2.01492236 0.01141493" Properties=species:S:1:pos:R:3:force:R:3:velocities:R:3:Z:I:1
Al         0.00000000       0.00000000       0.00000000         0.00000000      -0.00000000      -0.00000000         0.00000000       0.00000000       0.00000000         13
1
pbc=[T, T, T] virial=[[0.00000925, 0.00003750, 0.00004207], [0.00003750, 0.00005210, -0.00001002], [0.00004207, -0.00001002, 0.00004905]] energy=-63.06559296 Lattice="0.03663022 2.03436794 2.01484575 2.03847991 -0.01932919 2.04979255 2.04810117 2.01011422 0.00738701" Properties=species:S:1:pos:R:3:force:R:3:velocities:R:3:Z:I:1
Al         0.00000000       0.00000000       0.00000000        -0.00000000       0.00000000       0.00000000         0.00000000       0.00000000       0.00000000         13
1
pbc=[T, T, T] virial=[[-0.00003090, 0.00001761, 0.00003492], [0.00001761, -0.00002242, -0.00002040], [0.00003492, -0.00002040, -0.00000915]] energy=-63.06910377 Lattice="-0.02174139 2.00987643 1.99649292 2.01081995 0.00318239 2.02134626 2.00972599 2.00949571 -0.00368535" Properties=species:S:1:pos:R:3:force:R:3:velocities:R:3:Z:I:1
Al         0.00000000       0.00000000       0.00000000         0.00000000      -0.00000000      -0.00000000         0.00000000       0.00000000       0.00000000         13
1
pbc=[T, T, T] virial=[[0.00000424, 0.00001735, -0.00001669], [0.00001735, 0.00007595, 0.00003087], [-0.00001669, 0.00003087, 0.00008836]] energy=-63.06017412 Lattice="-0.01176520 2.06982642 2.06285474 1.98328209 0.05422023 2.03589444 1.98337980 2.08422224 -0.02407007" Properties=species:S:1:pos:R:3:force:R:3:velocities:R:3:Z:I:1
Al         0.00000000       0.00000000       0.00000000        -0.00000000       0.00000000       0.00000000         0.00000000       0.00000000       0.00000000         13
1
pbc=[T, T, T] virial=[[-0.00006881, 0.00000576, -0.00002239], [0.00000576, -0.00002105, 0.00002448], [-0.00002239, 0.00002448, -0.00011518]] energy=-63.06540079 Lattice="0.00435466 2.04167335 1.93234292 2.02753480 0.01148382 1.94096365 2.04276617 1.97953838 -0.06432607" Properties=species:S:1:pos:R:3:force:R:3:velocities:R:3:Z:I:1
Al         0.00000000       0.00000000       0.00000000         0.00000000       0.00000000      -0.00000000         0.00000000       0.00000000       0.00000000         13
1
pbc=[T, T, T] virial=[[0.00002250, 0.00000125, 0.00003733], [0.00000125, 0.00000951, -0.00000490], [0.00003733, -0.00000490, 0.00003447]] energy=-63.07182483 Lattice="0.00069227 2.02608151 2.02346235 2.01894424 -0.01030409 2.01428292 2.02996047 2.02097014 -0.00533928" Properties=species:S:1:pos:R:3:force:R:3:velocities:R:3:Z:I:1
Al         0.00000000       0.00000000       0.00000000        -0.00000000       0.00000000       0.00000000         0.00000000       0.00000000       0.00000000         13
1
pbc=[T, T, T] virial=[[0.00018842, -0.00003763, -0.00000238], [-0.00003763, 0.00003374, -0.00008775], [-0.00000238, -0.00008775, 0.00020803]] energy=-63.04226655 Lattice="-0.01240056 1.89551029 2.10089781 2.08877720 -0.13452917 2.09492518 2.10089207 1.93525404 -0.03245442" Properties=species:S:1:pos:R:3:force:R:3:velocities:R:3:Z:I:1
Al         0.00000000       0.00000000       0.00000000        -0.00000000       0.00000000       0.00000000         0.00000000       0.00000000       0.00000000         13
1
pbc=[T, T, T] virial=[[0.00023795, -0.00003238, 0.00006278], [-0.00003238, 0.00022960, 0.00002675], [0.00006278, 0.00002675, 0.00019002]] energy=-63.01999560 Lattice="0.01874428 2.12636742 2.10252953 2.18201593 0.02374448 2.13584278 2.05908595 2.09132136 0.07376227" Properties=species:S:1:pos:R:3:force:R:3:velocities:R:3:Z:I:1
Al         0.00000000       0.00000000       0.00000000        -0.00000000       0.00000000       0.00000000         0.00000000       0.00000000       0.00000000         13
1
pbc=[T, T, T] virial=[[0.00003940, 0.00000278, 0.00002846], [0.00000278, -0.00000500, 0.00004973], [0.00002846, 0.00004973, 0.00007194]] energy=-63.05424759 Lattice="-0.00041497 2.02453669 2.09474783 2.09271490 0.06766141 2.11034349 2.01775646 1.99344503 0.07840906" Properties=species:S:1:pos:R:3:force:R:3:velocities:R:3:Z:I:1
Al         0.00000000       0.00000000       0.00000000        -0.00000000      -0.00000000       0.00000000         0.00000000       0.00000000       0.00000000         13
1
pbc=[T, T, T] virial=[[0.00008257, 0.00000213, -0.00000048], [0.00000213, 0.00008842, 0.00002597], [-0.00000048, 0.00002597, 0.00010066]] energy=-63.06747265 Lattice="-0.02759188 2.04211932 2.01551530 2.01197403 -0.00589493 2.08409741 2.06151040 2.02517949 0.01240370" Properties=species:S:1:pos:R:3:force:R:3:velocities:R:3:Z:I:1
Al         0.00000000       0.00000000       0.00000000        -0.00000000       0.00000000      -0.00000000         0.00000000       0.00000000       0.00000000         13
1
pbc=[T, T, T] virial=[[0.00000321, 0.00005747, -0.00003108], [0.00005747, -0.00004953, -0.00003236], [-0.00003108, -0.00003236, -0.00012275]] energy=-63.06147192 Lattice="-0.02520254 2.00775957 1.96058379 2.00409626 0.02607041 1.96841138 2.02967924 2.01825856 -0.04561404" Properties=species:S:1:pos:R:3:force:R:3:velocities:R:3:Z:I:1
Al         0.00000000       0.00000000       0.00000000        -0.00000000       0.00000000       0.00000000         0.00000000       0.00000000       0.00000000         13
1
pbc=[T, T, T] virial=[[0.00004864, -0.00001169, -0.00003528], [-0.00001169, 0.00005356, 0.00003581], [-0.00003528, 0.00003581, 0.00010398]] energy=-63.04091526 Lattice="-0.09361332 2.12414052 2.14246364 1.89358462 -0.00734892 2.11215393 1.96780044 2.04816515 0.13564340" Properties=species:S:1:pos:R:3:force:R:3:velocities:R:3:Z:I:1
Al         0.00000000       0.00000000       0.00000000        -0.00000000       0.00000000       0.00000000         0.00000000       0.00000000       0.00000000         13
1
pbc=[T, T, T] virial=[[-0.00001092, -0.00002601, 0.00002233], [-0.00002601, 0.00004625, 0.00002728], [0.00002233, 0.00002728, -0.00003647]] energy=-63.06658694 Lattice="-0.02313931 2.04634385 1.99346428 1.99528823 -0.00355214 2.02871977 1.99539580 2.03163242 0.00273295" Properties=species:S:1:pos:R:3:force:R:3:velocities:R:3:Z:I:1
Al         0.00000000       0.00000000       0.00000000        -0.00000000      -0.00000000       0.00000000         0.00000000       0.00000000       0.00000000         13
1
pbc=[T, T, T] virial=[[0.00001959, 0.00000900, 0.00001156], [0.00000900, 0.00002036, 0.00006509], [0.00001156, 0.00006509, 0.00001684]] energy=-63.06496758 Lattice="-0.05389477 2.03304379 2.03048178 2.02757330 0.04669105 2.03122971 2.02490510 2.04352620 0.06044620" Properties=species:S:1:pos:R:3:force:R:3:velocities:R:3:Z:I:1
Al         0.00000000       0.00000000       0.00000000        -0.00000000       0.00000000      -0.00000000         0.00000000       0.00000000       0.00000000         13
1
pbc=[T, T, T] virial=[[0.00009510, 0.00000809, -0.00005682], [0.00000809, 0.00006885, 0.00002306], [-0.00005682, 0.00002306, 0.00009610]] energy=-63.05363374 Lattice="-0.03036011 2.07436836 2.03708608 2.00473345 0.06382973 2.02546941 2.06097331 2.03139363 -0.06515211" Properties=species:S:1:pos:R:3:force:R:3:velocities:R:3:Z:I:1
Al         0.00000000       0.00000000       0.00000000         0.00000000      -0.00000000      -0.00000000         0.00000000       0.00000000       0.00000000         13
1
pbc=[T, T, T] virial=[[0.00001945, -0.00001611, -0.00000245], [-0.00001611, -0.00000266, -0.00002235], [-0.00000245, -0.00002235, 0.00001838]] energy=-63.07246881 Lattice="-0.01120515 2.01138878 2.00024024 2.02630267 -0.02338209 2.04224207 2.02260070 1.98402409 -0.01224822" Properties=species:S:1:pos:R:3:force:R:3:velocities:R:3:Z:I:1
Al         0.00000000       0.00000000       0.00000000         0.00000000       0.00000000      -0.00000000         0.00000000       0.00000000       0.00000000         13
1
pbc=[T, T, T] virial=[[0.00005887, 0.00002054, -0.00000271], [0.00002054, 0.00009561, -0.00001222], [-0.00000271, -0.00001222, 0.00004813]] energy=-63.06956798 Lattice="0.00501614 2.04455287 2.00017501 2.01710679 -0.00840677 2.03471732 2.04775064 2.05576874 -0.02223756" Properties=species:S:1:pos:R:3:force:R:3:velocities:R:3:Z:I:1
Al         0.00000000       0.00000000       0.00000000        -0.00000000       0.00000000       0.00000000         0.00000000       0.00000000       0.00000000         13
1
pbc=[T, T, T] virial=[[-0.00002840, -0.00003414, 0.00005665], [-0.00003414, -0.00010028, -0.00003798], [0.00005665, -0.00003798, -0.00001352]] energy=-63.06463102 Lattice="-0.01103666 1.97578115 2.00072363 2.01839716 -0.01701877 2.01571787 1.97195340 2.01667219 -0.01711531" Properties=species:S:1:pos:R:3:force:R:3:velocities:R:3:Z:I:1
Al         0.00000000       0.00000000       0.00000000        -0.00000000       0.00000000      -0.00000000         0.00000000       0.00000000       0.00000000         13
1
pbc=[T, T, T] virial=[[-0.00000880, 0.00000516, 0.00002783], [0.00000516, 0.00004701, 0.00003290], [0.00002783, 0.00003290, -0.00000561]] energy=-63.06435007 Lattice="-0.01816196 2.05416330 2.03257978 2.00423498 0.02585164 2.01948050 1.96900249 2.07923260 0.02352277" Properties=species:S:1:pos:R:3:force:R:3:velocities:R:3:Z:I:1
Al         0.00000000       0.00000000       0.00000000         0.00000000       0.00000000      -0.00000000         0.00000000       0.00000000       0.00000000         13
1
pbc=[T, T, T] virial=[[0.00000773, 0.00001455, -0.00003461], [0.00001455, 0.00004332, 0.00001039], [-0.00003461, 0.00001039, 0.00001080]] energy=-63.07177525 Lattice="0.00332949 2.02034338 2.02076078 2.03135341 0.00180512 2.02960479 2.02501293 2.02255185 -0.00054864" Properties=species:S:1:pos:R:3:force:R:3:velocities:R:3:Z:I:1
Al         0.00000000       0.00000000       0.00000000        -0.00000000       0.00000000       0.00000000         0.00000000       0.00000000       0.00000000         13
1
pbc=[T, T, T] virial=[[0.00005111, -0.00001588, 0.00000181], [-0.00001588, 0.00010744, 0.00000301], [0.00000181, 0.00000301, 0.00005466]] energy=-63.06795062 Lattice="-0.02491502 2.10582881 1.98241819 2.04193396 0.04602531 1.96940189 2.02561513 2.08937109 -0.04003291" Properties=species:S:1:pos:R:3:force:R:3:velocities:R:3:Z:I:1
Al         0.00000000       0.00000000       0.00000000        -0.00000000      -0.00000000       0.00000000         0.00000000       0.00000000       0.00000000         13
1
pbc=[T, T, T] virial=[[0.00006019, 0.00003948, -0.00001471], [0.00003948, 0.00004981, 0.00004046], [-0.00001471, 0.00004046, 0.00002661]] energy=-63.06362176 Lattice="0.04977896 2.08212845 2.00771427 2.05258705 0.02238920 1.97738529 2.06184254 2.04558703 -0.02296554" Properties=species:S:1:pos:R:3:force:R:3:velocities:R:3:Z:I:1
Al         0.00000000       0.00000000       0.00000000        -0.00000000      -0.00000000      -0.00000000         0.00000000       0.00000000       0.00000000         13
1
pbc=[T, T, T] virial=[[0.00001116, 0.00000470, 0.00005116], [0.00000470, -0.00004822, 0.00010283], [0.00005116, 0.00010283, 0.00008785]] energy=-63.05127166 Lattice="-0.01496288 2.03107659 2.10746627 2.05151977 0.09451978 2.11197788 2.02005394 2.01789916 0.09975855" Properties=species:S:1:pos:R:3:force:R:3:velocities:R:3:Z:I:1
Al         0.00000000       0.00000000       0.00000000        -0.00000000      -0.00000000       0.00000000         0.00000000       0.00000000       0.00000000         13
1
pbc=[T, T, T] virial=[[-0.00000168, -0.00006667, 0.00000634], [-0.00006667, 0.00010644, 0.00005339], [0.00000634, 0.00005339, 0.00006300]] energy=-63.05896788 Lattice="-0.00502728 2.08398214 2.04416295 2.01843811 -0.00583833 2.03855923 1.97006516 2.00554709 -0.03047991" Properties=species:S:1:pos:R:3:force:R:3:velocities:R:3:Z:I:1
Al         0.00000000       0.00000000       0.00000000         0.00000000      -0.00000000      -0.00000000         0.00000000       0.00000000       0.00000000         13
1
pbc=[T, T, T] virial=[[0.00004548, 0.00004744, 0.00000741], [0.00004744, 0.00012848, 0.00003525], [0.00000741, 0.00003525, 0.00003617]] energy=-63.06648149 Lattice="0.02452605 2.08115862 2.03601697 2.03185119 0.05178126 2.02806009 2.04544258 2.10791673 0.01547140" Properties=species:S:1:pos:R:3:force:R:3:velocities:R:3:Z:I:1
Al         0.00000000       0.00000000       0.00000000        -0.00000000       0.00000000       0.00000000         0.00000000       0.00000000       0.00000000         13
1
pbc=[T, T, T] virial=[[0.00003196, 0.00001604, 0.00006629], [0.00001604, 0.00005581, -0.00006286], [0.00006629, -0.00006286, 0.00008111]] energy=-63.05623370 Lattice="0.07112281 2.00723689 2.01264053 2.06909678 -0.04062546 2.07248250 2.05356909 2.03587965 0.01211700" Properties=species:S:1:pos:R:3:force:R:3:velocities:R:3:Z:I:1
Al         0.00000000       0.00000000       0.00000000         0.00000000       0.00000000      -0.00000000         0.00000000       0.00000000       0.00000000         13
1
pbc=[T, T, T] virial=[[-0.00009171, 0.00000399, 0.00005154], [0.00000399, -0.00011647, 0.00003432], [0.00005154, 0.00003432, -0.00013023]] energy=-63.06250160 Lattice="-0.03342918 2.01125836 1.98672166 2.02757402 0.04403433 2.02901160 1.98486351 1.99772239 0.06136016" Properties=species:S:1:pos:R:3:force:R:3:velocities:R:3:Z:I:1
Al         0.00000000       0.00000000       0.00000000         0.00000000      -0.00000000      -0.00000000         0.00000000       0.00000000       0.00000000         13
1
pbc=[T, T, T] virial=[[0.00005290, 0.00000241, -0.00007252], [0.00000241, 0.00007856, -0.00007448], [-0.00007252, -0.00007448, -0.00003891]] energy=-63.06398991 Lattice="-0.01265615 2.01787232 1.95730752 1.99465147 -0.09755637 1.96080923 2.09587307 2.02419007 -0.01722948" Properties=species:S:1:pos:R:3:force:R:3:velocities:R:3:Z:I:1
Al         0.00000000       0.00000000       0.00000000        -0.00000000       0.00000000       0.00000000         0.00000000       0.00000000       0.00000000         13
1
pbc=[T, T, T] virial=[[0.00012796, 0.00003645, 0.00004056], [0.00003645, 0.00010824, -0.00004670], [0.00004056, -0.00004670, 0.00011834]] energy=-63.04538888 Lattice="-0.05572538 2.01281705 2.02378749 1.99481071 0.07516973 2.19018580 2.03366142 2.10447509 0.00962756" Properties=species:S:1:pos:R:3:force:R:3:velocities:R:3:Z:I:1
Al         0.00000000       0.00000000       0.00000000        -0.00000000      -0.00000000       0.00000000         0.00000000       0.00000000       0.00000000         13
1
pbc=[T, T, T] virial=[[0.00001755, -0.00003562, -0.00002451], [-0.00003562, 0.00002313, 0.00001997], [-0.00002451, 0.00001997, 0.00005848]] energy=-63.07024738 Lattice="-0.01757798 2.04290102 2.05222345 1.99961671 -0.02593475 2.02300907 1.96250315 2.00867837 -0.03890371" Properties=species:S:1:pos:R:3:force:R:3:velocities:R:3:Z:I:1
Al         0.00000000       0.00000000       0.00000000         0.00000000      -0.00000000      -0.00000000         0.00000000       0.00000000       0.00000000         13
1
pbc=[T, T, T] virial=[[0.00005531, -0.00000400, -0.00001726], [-0.00000400, 0.00001497, -0.00000006], [-0.00001726, -0.00000006, 0.00002506]] energy=-63.07153508 Lattice="-0.02098131 2.00147607 2.03596000 2.04237141 0.01647175 2.03872124 2.02140263 2.03848355 0.01911854" Properties=species:S:1:pos:R:3:force:R:3:velocities:R:3:Z:I:1
Al         0.00000000       0.00000000       0.00000000        -0.00000000       0.00000000      -0.00000000         0.00000000       0.00000000       0.00000000         13
1
pbc=[T, T, T] virial=[[-0.00000075, 0.00000297, 0.00008061], [0.00000297, -0.00013060, -0.00002387], [0.00008061, -0.00002387, -0.00010028]] energy=-63.05920530 Lattice="0.00887208 2.00384659 1.95026966 2.05088287 0.02987650 1.99162887 2.01146335 2.01758039 -0.01536924" Properties=species:S:1:pos:R:3:force:R:3:velocities:R:3:Z:I:1
Al         0.00000000       0.00000000       0.00000000         0.00000000       0.00000000      -0.00000000         0.00000000       0.00000000       0.00000000         13
1
pbc=[T, T, T] virial=[[0.00007761, -0.00000883, -0.00000385], [-0.00000883, 0.00006883, 0.00000394], [-0.00000385, 0.00000394, 0.00005542]] energy=-63.06938215 Lattice="0.01786876 2.02241882 2.03313365 2.04221454 -0.03853638 2.02959505 2.07202387 2.02925852 0.02827630" Properties=species:S:1:pos:R:3:force:R:3:velocities:R:3:Z:I:1
Al         0.00000000       0.00000000       0.00000000        -0.00000000       0.00000000       0.00000000         0.00000000       0.00000000       0.00000000         13
1
pbc=[T, T, T] virial=[[0.00008966, -0.00000951, 0.00000125], [-0.00000951, 0.00001202, -0.00000695], [0.00000125, -0.00000695, 0.00004209]] energy=-63.07064914 Lattice="-0.02185161 1.99466994 2.03007410 2.04565876 -0.00950076 2.01013480 2.03836128 2.02885965 -0.01388361" Properties=species:S:1:pos:R:3:force:R:3:velocities:R:3:Z:I:1
Al         0.00000000       0.00000000       0.00000000         0.00000000       0.00000000       0.00000000         0.00000000       0.00000000       0.00000000         13
1
pbc=[T, T, T] virial=[[0.00003338, -0.00005435, -0.00002258], [-0.00005435, -0.00001147, -0.00002591], [-0.00002258, -0.00002591, -0.00008344]] energy=-63.05161071 Lattice="-0.04742413 2.00412472 1.95680671 2.12255663 -0.07580360 1.86838468 2.02585304 1.97017865 -0.04758066" Properties=species:S:1:pos:R:3:force:R:3:velocities:R:3:Z:I:1
Al         0.00000000       0.00000000       0.00000000         0.00000000      -0.00000000      -0.00000000         0.00000000       0.00000000       0.00000000         13
1
pbc=[T, T, T] virial=[[0.00002814, 0.00000404, -0.00000304], [0.00000404, 0.00001963, 0.00000247], [-0.00000304, 0.00000247, 0.00002686]] energy=-63.07120814 Lattice="-0.00026606 2.02479496 2.02535950 2.02452009 -0.00125569 2.02505026 2.02420944 2.02555639 0.00108845" Properties=species:S:1:pos:R:3:force:R:3:velocities:R:3:Z:I:1
Al         0.00000000       0.00000000       0.00000000         0.00000000      -0.00000000       0.00000000         0.00000000       0.00000000       0.00000000         13
1
pbc=[T, T, T] virial=[[-0.00004124, 0.00006603, -0.00005335], [0.00006603, -0.00002108, -0.00004498], [-0.00005335, -0.00004498, -0.00011351]] energy=-63.06213783 Lattice="-0.01693433 1.96407232 2.00252953 1.96533517 -0.02650319 2.00313838 2.01262140 2.02173983 -0.02111142" Properties=species:S:1:pos:R:3:force:R:3:velocities:R:3:Z:I:1
Al         0.00000000       0.00000000       0.00000000        -0.00000000       0.00000000       0.00000000         0.00000000       0.00000000       0.00000000         13
1
pbc=[T, T, T] virial=[[-0.00004677, 0.00002424, 0.00000941], [0.00002424, -0.00004465, -0.00006619], [0.00000941, -0.00006619, -0.00012131]] energy=-63.06251778 Lattice="0.02794036 1.97568786 1.95026788 2.01353580 -0.06540972 1.97490462 2.06444427 1.96792494 -0.02457908" Properties=species:S:1:pos:R:3:force:R:3:velocities:R:3:Z:I:1
Al         0.00000000       0.00000000       0.00000000         0.00000000      -0.00000000      -0.00000000         0.00000000       0.00000000       0.00000000         13
1
pbc=[T, T, T] virial=[[0.00002881, 0.00009353, -0.00004286], [0.00009353, 0.00006444, -0.00002573], [-0.00004286, -0.00002573, -0.00007607]] energy=-63.05618101 Lattice="0.02754538 2.01868818 1.98469007 2.00963212 -0.02768592 1.96362090 2.05615237 2.07105986 -0.02582445" Properties=species:S:1:pos:R:3:force:R:3:velocities:R:3:Z:I:1
Al         0.00000000       0.00000000       0.00000000         0.00000000      -0.00000000      -0.00000000         0.00000000       0.00000000       0.00000000         13
1
pbc=[T, T, T] virial=[[0.00011864, -0.00000731, -0.00000984], [-0.00000731, 0.00013860, -0.00001138], [-0.00000984, -0.00001138, 0.00013288]] energy=-63.06018312 Lattice="-0.05350361 2.06030965 2.06509206 2.00480044 0.00058453 2.03847759 1.99697567 2.09040943 -0.03253000" Properties=species:S:1:pos:R:3:force:R:3:velocities:R:3:Z:I:1
Al         0.00000000       0.00000000       0.00000000        -0.00000000      -0.00000000      -0.00000000         0.00000000       0.00000000       0.00000000         13
1
pbc=[T, T, T] virial=[[-0.00000963, 0.00010114, -0.00001805], [0.00010114, -0.00015154, -0.00009739], [-0.00001805, -0.00009739, -0.00015270]] energy=-63.03347350 Lattice="-0.05636956 1.88196831 1.90252627 1.98312428 -0.01578521 2.01811512 2.09319357 2.03210692 -0.03052949" Properties=species:S:1:pos:R:3:force:R:3:velocities:R:3:Z:I:1
Al         0.00000000       0.00000000       0.00000000        -0.00000000       0.00000000       0.00000000         0.00000000       0.00000000       0.00000000         13
1
pbc=[T, T, T] virial=[[-0.00011818, -0.00005979, -0.00001973], [-0.00005979, -0.00008772, 0.00004316], [-0.00001973, 0.00004316, 0.00002364]] energy=-63.06351500 Lattice="-0.02560506 2.00578596 2.00550256 1.98876497 -0.00692055 2.00890787 1.99051281 1.96055355 -0.03301993" Properties=species:S:1:pos:R:3:force:R:3:velocities:R:3:Z:I:1
Al         0.00000000       0.00000000       0.00000000        -0.00000000       0.00000000       0.00000000         0.00000000       0.00000000       0.00000000         13
1
pbc=[T, T, T] virial=[[0.00017924, 0.00001422, -0.00008558], [0.00001422, 0.00015182, -0.00000768], [-0.00008558, -0.00000768, 0.00011812]] energy=-63.02622092 Lattice="0.01599532 2.18340960 1.93828486 2.01789316 0.16057946 1.95749700 2.13727432 2.21052084 -0.15639065" Properties=species:S:1:pos:R:3:force:R:3:velocities:R:3:Z:I:1
Al         0.00000000       0.00000000       0.00000000         0.00000000       0.00000000       0.00000000         0.00000000       0.00000000       0.00000000         13
1
pbc=[T, T, T] virial=[[0.00005445, -0.00002668, 0.00003549], [-0.00002668, 0.00000973, 0.00003543], [0.00003549, 0.00003543, -0.00003853]] energy=-63.06399861 Lattice="-0.04156683 2.04619240 1.98818854 2.04514996 0.04895038 2.02816488 2.00601533 2.02339387 0.00288789" Properties=species:S:1:pos:R:3:force:R:3:velocities:R:3:Z:I:1
Al         0.00000000       0.00000000       0.00000000         0.00000000       0.00000000       0.00000000         0.00000000       0.00000000       0.00000000         13
1
pbc=[T, T, T] virial=[[-0.00006412, 0.00001135, 0.00004250], [0.00001135, -0.00007163, 0.00004294], [0.00004250, 0.00004294, -0.00007086]] energy=-63.06699419 Lattice="0.03518739 2.02577361 2.03632096 2.02043402 0.00093783 2.03864721 2.01191942 1.97585144 0.04523444" Properties=species:S:1:pos:R:3:force:R:3:velocities:R:3:Z:I:1
Al         0.00000000       0.00000000       0.00000000         0.00000000       0.00000000      -0.00000000         0.00000000       0.00000000       0.00000000         13
1
pbc=[T, T, T] virial=[[0.00005033, 0.00001662, 0.00002670], [0.00001662, 0.00007646, 0.00001467], [0.00002670, 0.00001467, 0.00006809]] energy=-63.06932586 Lattice="0.04103668 2.04981839 2.05245876 2.04360553 0.02661243 2.05152169 2.03761890 2.07108086 0.01713534" Properties=species:S:1:pos:R:3:force:R:3:velocities:R:3:Z:I:1
Al         0.00000000       0.00000000       0.00000000         0.00000000      -0.00000000      -0.00000000         0.00000000       0.00000000       0.00000000         13
1
pbc=[T, T, T] virial=[[0.00006862, -0.00000397, -0.00000300], [-0.00000397, 0.00007744, 0.00000603], [-0.00000300, 0.00000603, 0.00004324]] energy=-63.07025138 Lattice="0.02287593 2.06900247 2.01173285 2.03438525 -0.00012107 2.05843324 2.06711124 2.02289147 0.02552635" Properties=species:S:1:pos:R:3:force:R:3:velocities:R:3:Z:I:1
Al         0.00000000       0.00000000       0.00000000         0.00000000      -0.00000000      -0.00000000         0.00000000       0.00000000       0.00000000         13
1
pbc=[T, T, T] virial=[[0.00007698, -0.00000316, -0.00000437], [-0.00000316, 0.00002431, -0.00000421], [-0.00000437, -0.00000421, 0.00005039]] energy=-63.07059321 Lattice="-0.04657646 1.98417818 2.06433088 2.01990510 -0.01610380 2.04049183 2.03311484 2.00829098 0.01952624" Properties=species:S:1:pos:R:3:force:R:3:velocities:R:3:Z:I:1
Al         0.00000000       0.00000000       0.00000000        -0.00000000       0.00000000       0.00000000         0.00000000       0.00000000       0.00000000         13
1
pbc=[T, T, T] virial=[[-0.00001344, -0.00002468, 0.00009186], [-0.00002468, -0.00015257, -0.00002902], [0.00009186, -0.00002902, -0.00005473]] energy=-63.05143762 Lattice="0.02235210 1.99430308 1.95655951 2.08805437 0.06072460 2.02555900 2.02431049 1.96953425 -0.03978981" Properties=species:S:1:pos:R:3:force:R:3:velocities:R:3:Z:I:1
Al         0.00000000       0.00000000       0.00000000        -0.00000000      -0.00000000       0.00000000         0.00000000       0.00000000       0.00000000         13
1
pbc=[T, T, T] virial=[[0.00003578, 0.00010995, -0.00000766], [0.00010995, -0.00000863, -0.00001706], [-0.00000766, -0.00001706, -0.00005429]] energy=-63.05540390 Lattice="0.07952385 1.99051126 2.03784726 2.06102649 0.04600087 1.99177564 2.07865619 2.06802617 -0.00734355" Properties=species:S:1:pos:R:3:force:R:3:velocities:R:3:Z:I:1
Al         0.00000000       0.00000000       0.00000000        -0.00000000       0.00000000       0.00000000         0.00000000       0.00000000       0.00000000         13
1
pbc=[T, T, T] virial=[[0.00014038, 0.00002510, -0.00006254], [0.00002510, 0.00014251, -0.00003499], [-0.00006254, -0.00003499, 0.00016253]] energy=-63.04687200 Lattice="-0.01415814 2.03362418 2.04872289 1.97128436 -0.08218279 2.05563708 2.07508929 2.05273196 -0.06279561" Properties=species:S:1:pos:R:3:force:R:3:velocities:R:3:Z:I:1
Al         0.00000000       0.00000000       0.00000000        -0.00000000       0.00000000       0.00000000         0.00000000       0.00000000       0.00000000         13
1
pbc=[T, T, T] virial=[[0.00007338, -0.00003535, 0.00001686], [-0.00003535, 0.00006021, 0.00001689], [0.00001686, 0.00001689, 0.00007151]] energy=-63.06912098 Lattice="0.00628192 2.02579348 2.04407417 2.03617305 -0.00928381 2.03485478 2.04243165 2.04111914 0.00518947" Properties=species:S:1:pos:R:3:force:R:3:velocities:R:3:Z:I:1
Al         0.00000000       0.00000000       0.00000000        -0.00000000       0.00000000      -0.00000000         0.00000000       0.00000000       0.00000000         13
1
pbc=[T, T, T] virial=[[0.00005565, 0.00001558, 0.00006198], [0.00001558, -0.00001659, -0.00002402], [0.00006198, -0.00002402, 0.00006290]] energy=-63.05790797 Lattice="0.01847725 1.96441881 2.01685229 2.10037309 0.02971795 2.06849004 2.04889857 2.02996338 0.01281570" Properties=species:S:1:pos:R:3:force:R:3:velocities:R:3:Z:I:1
Al         0.00000000       0.00000000       0.00000000         0.00000000       0.00000000      -0.00000000         0.00000000       0.00000000       0.00000000         13
1
pbc=[T, T, T] virial=[[0.00011390, 0.00001181, 0.00000106], [0.00001181, 0.00008423, 0.00001681], [0.00000106, 0.00001681, 0.00012509]] energy=-63.06446067 Lattice="0.03657586 2.04725337 2.09858590 2.08288498 0.01822882 2.03927944 2.07543994 2.02196861 0.01240867" Properties=species:S:1:pos:R:3:force:R:3:velocities:R:3:Z:I:1
Al         0.00000000       0.00000000       0.00000000         0.00000000      -0.00000000       0.00000000         0.00000000       0.00000000       0.00000000         13
1
pbc=[T, T, T] virial=[[0.00002021, 0.00003931, -0.00000388], [0.00003931, 0.00003752, 0.00004436], [-0.00000388, 0.00004436, 0.00001417]] energy=-63.06721993 Lattice="0.00114985 2.03688717 2.01587674 2.01587840 0.01201419 2.00941110 2.02992110 2.04779159 -0.00271594" Properties=species:S:1:pos:R:3:force:R:3:velocities:R:3:Z:I:1
Al         0.00000000       0.00000000       0.00000000         0.00000000       0.00000000      -0.00000000         0.00000000       0.00000000       0.00000000         13
1
pbc=[T, T, T] virial=[[-0.00002566, 0.00005576, -0.00001284], [0.00005576, -0.00001875, -0.00001022], [-0.00001284, -0.00001022, -0.00003285]] energy=-63.06839371 Lattice="0.00187796 1.98875805 2.02895382 1.98615068 -0.02793766 2.02497018 2.02674288 1.99375837 0.00091754" Properties=species:S:1:pos:R:3:force:R:3:velocities:R:3:Z:I:1
Al         0.00000000       0.00000000       0.00000000        -0.00000000       0.00000000       0.00000000         0.00000000       0.00000000       0.00000000         13
1